288
Lattice="12.973031998 0.0 0.0 0.0 12.973031998 0.0 0.0 0.0 17.724420547" Properties=species:S:1:pos:R:3:pol_state:I:1:forces:R:3:magmoms:R:4:toccup:R:2 energy=-2185.9063299 pbc="T T T"
Ti       9.70079000       0.08740000       1.40808000        0       0.36362200      -1.70399800       1.32945100       0.00000000      -0.00000000       0.00100000       0.00100000       1.29550000       1.29480000
Ti       9.61484000       0.07051000       4.35452000        0       2.54838600      -1.37884000      -0.46122200      -0.00000000      -0.00000000       0.00000000       0.00000000       1.27150000       1.27120000
Ti       9.63829000      12.91892000       7.36467000        0       1.05577600       0.07366500      -0.68030200       0.00000000       0.00000000       0.00000000       0.00000000       1.19680000       1.19670000
Ti       9.60846000      12.96796000      10.39220000        0       1.62004600       0.06062000       0.25308000      -0.00000000      -0.00000000       0.00000000       0.00000000       1.24540000       1.24530000
Ti       9.71544000      12.97288000      13.34889000        0      -0.52941500      -0.01891400      -0.72011100       0.00000000       0.00000000       0.00000000       0.00000000       1.25620000       1.25580000
Ti       9.89509000      12.86497000      16.23514000        0      -3.07839800       1.10651200       0.56359200      -0.00000000      -0.00000000       0.00100000       0.00100000       1.33890000       1.33820000
Ti       9.80168000       3.28488000      17.71809000        0      -0.89410700      -0.57811600      -0.61236200       0.00000000       0.00000000       0.00100000       0.00100000       1.26900000       1.26780000
Ti       9.75571000       3.22694000       2.93858000        0       1.32185600       0.78434700       0.61178800       0.00000000       0.00000000       0.00100000       0.00100000       1.23140000       1.23090000
Ti       9.78726000       3.24539000       5.94667000        0      -0.42208300       0.39691100      -1.30887300       0.00000000       0.00000000       0.00000000       0.00000000       1.26010000       1.26000000
Ti       9.78923000       3.26626000       8.83687000        0      -0.52993200      -0.16637200       0.32070400       0.00000000       0.00000000       0.00000000       0.00000000       1.24280000       1.24270000
Ti       9.78382000       3.23713000      11.83154000        0       0.37425600       0.47002300      -0.15208900       0.00000000       0.00000000       0.00000000       0.00000000       1.22030000       1.22020000
Ti       9.79871000       3.20879000      14.79125000        0      -1.34264500      -0.79001400       0.36845300       0.00000000      -0.00000000       0.00100000       0.00100000       1.27340000       1.27260000
Ti       9.82606000       6.46547000       1.48011000        0      -1.34211300       0.03225300      -0.38140000      -0.00000000      -0.00000000      -0.00000000      -0.00000000       1.30640000       1.30650000
Ti       9.72120000       6.51168000       4.41956000        0       0.55722000      -0.12323400      -0.61542100       0.00000000       0.00000000       0.00100000       0.00100000       1.21990000       1.21930000
Ti       9.67402000       6.57477000       7.39806000        0       0.85071100       0.50601900       0.22072900       0.00000000      -0.00000000       0.00000000       0.00000000       1.22360000       1.22320000
Ti       9.80009000       6.46963000      10.38072000        0       0.45867900       0.39056800      -0.02093600       0.00000000      -0.00000000       0.00000000       0.00000000       1.20270000       1.20250000
Ti       9.80696000       6.43190000      13.32777000        0      -0.66770200      -0.13032700      -0.48892900       0.00000000      -0.00000000       0.00100000       0.00100000       1.32220000       1.32140000
Ti       9.82279000       6.50060000      16.23787000        0      -1.38554400       0.36675700       1.38316600      -0.00000000      -0.00000000       0.00100000       0.00100000       1.25550000       1.25450000
Ti       9.64899000       9.66412000       0.06664000        0       1.16362700       0.90509200      -1.24717000       0.00000000       0.00000000       0.00100000       0.00100000       1.22700000       1.22610000
Ti       9.65536000       9.77425000       2.90627000        0       0.43326700       0.31510900       1.85591200      -0.00000000      -0.00000000       0.00100000       0.00100000       1.31890000       1.31830000
Ti       9.68397000       9.75951000       5.88786000        0       0.30748300      -0.38621300      -0.90728300       0.00000000       0.00000000       0.00000000       0.00000000       1.24290000       1.24280000
Ti       9.67185000       9.78868000       8.93973000        0       0.10111400      -0.63491100      -1.17418900      -0.00000000      -0.00000000       0.00000000       0.00000000       1.24820000       1.24820000
Ti       9.65108000       9.70819000      11.86699000        0       0.08875500      -0.06997500      -1.45699100       0.00000000       0.00000000       0.00000000       0.00000000       1.34600000       1.34570000
Ti       9.65431000       9.63865000      14.70220000        0       0.57933800       0.55442800       1.23123400       0.00000000       0.00000000       0.00000000       0.00000000       1.23890000       1.23850000
Ti       6.48818000       0.10834000      17.71256000        0      -0.18166200      -0.30625000      -0.83745600       0.00000000       0.00000000       0.00000000       0.00000000       1.17830000       1.17810000
Ti       6.44877000       0.03006000       2.87661000        0       0.01461400       0.76381600       1.37812300       0.00000000      -0.00000000      -0.00000000      -0.00000000       1.33580000       1.33590000
Ti       6.44915000       0.13950000       5.86679000        0       0.00645500      -2.16269400       0.77240900      -0.00000000       0.00000000       0.00000000       0.00000000       1.24060000       1.24060000
Ti       6.43855000       0.16795000       8.83169000        0       0.54799400      -2.58471200       0.32114200      -0.00000000       0.00000000       0.00000000       0.00000000       1.27200000       1.27200000
Ti       6.46040000       0.02982000      11.87388000        0      -0.15138500      -0.11414400      -0.52859500      -0.00000000       0.00000000       0.00000000       0.00000000       1.22300000       1.22290000
Ti       6.48619000       0.06603000      14.77765000        0       0.06379500      -0.14086500       0.43333500       0.00000000      -0.00000000       0.00000000       0.00000000       1.30480000       1.30480000
Ti       6.52959000       3.35135000       1.52279000        0      -0.36022800      -0.66204400      -1.74781600       0.00000000       0.00000000       0.00100000       0.00100000       1.30410000       1.30360000
Ti       6.50742000       3.35759000       4.44714000        0       0.03568700      -0.37516900      -0.75022800       0.00000000       0.00000000       0.00000000       0.00000000       1.19990000       1.19970000
Ti       6.48745000       3.33881000       7.38108000        0       0.17407900       0.87871400       0.21546500      -0.00000000      -0.00000000       0.00000000       0.00000000       1.25220000       1.25220000
Ti       6.50810000       3.33750000      10.31747000        0      -0.11351400      -0.09676500       1.88905100       0.00000000      -0.00000000       0.00000000       0.00000000       1.26370000       1.26370000
Ti       6.53823000       3.37076000      13.26108000        0      -0.34848700      -1.72823500       1.80706100      -0.00000000      -0.00000000       0.00000000       0.00000000       1.27550000       1.27540000
Ti       6.50998000       3.34836000      16.26822000        0      -0.13050800      -1.09945800       0.21144900       0.00000000       0.00000000       0.00000000       0.00000000       1.24730000       1.24700000
Ti       6.48907000       6.48498000      17.70024000        0       0.17700900       0.61547300      -1.38004700      -0.00000000      -0.00000000       0.00000000       0.00000000       1.30190000       1.30180000
Ti       6.50785000       6.62187000       2.77889000        0       0.00596800      -0.75951300       2.31234100      -0.00000000      -0.00000000       0.00000000       0.00000000       1.34660000       1.34640000
Ti       6.49932000       6.47115000       5.77577000        0       0.16991400       1.51891700       0.80257200      -0.00000000       0.00000000       0.00000000       0.00000000       1.19210000       1.19170000
Ti       6.51332000       6.52332000       8.91317000        0       0.06103700       1.45512500       0.28472600       0.00000000       0.00000000       0.00000000       0.00000000       1.21110000       1.21090000
Ti       6.51446000       6.61056000      11.88278000        0       0.19850800      -0.24496400      -1.97568600       0.00000000       0.00000000       0.00000000       0.00000000       1.32920000       1.32900000
Ti       6.49931000       6.55452000      14.66305000        0       0.11146000       0.32132200       4.11857800       0.00000000       0.00000000       0.00100000       0.00100000       1.24560000       1.24510000
Ti       6.46474000       9.79704000       1.40699000        0       0.09368100       0.11951800       0.87837500       0.00000000       0.00000000       0.00000000       0.00000000       1.31290000       1.31250000
Ti       6.45833000       9.83602000       4.33529000        0      -0.03389100      -0.05737100       2.03755400       0.00000000      -0.00000000       0.00000000       0.00000000       1.23350000       1.23340000
Ti       6.44806000       9.73882000       7.38403000        0       0.15350600       0.52547400       0.42902200      -0.00000000      -0.00000000       0.00000000       0.00000000       1.24030000       1.24030000
Ti       6.47431000       9.88942000      10.48828000        0      -0.24994200      -1.33842300      -3.89235500      -0.00000000      -0.00000000       0.00000000       0.00000000       1.29980000       1.29980000
Ti       6.44592000       9.77901000      13.37356000        0       0.07789100       0.84096200      -0.48465100       0.00000000       0.00000000       0.00000000       0.00000000       1.34030000       1.34010000
Ti       6.45771000       9.77466000      16.23868000        0       0.00183900      -0.50072600       0.51592200       0.00000000       0.00000000       0.00000000       0.00000000       1.27150000       1.27110000
Ti       3.21553000       0.07526000       1.38397000        0      -0.26881000      -1.76380400       1.42033200       0.00000000      -0.00000000       0.00100000       0.00100000       1.28380000       1.28300000
Ti       3.28898000       0.05382000       4.35902000        0      -2.35590600      -1.25184600      -0.03394600       0.00000000      -0.00000000       0.00000000       0.00000000       1.26340000       1.26330000
Ti       3.26772000      12.89903000       7.38905000        0      -0.86291500      -0.09521800      -1.52346200      -0.00000000      -0.00000000       0.00000000       0.00000000       1.19400000       1.19390000
Ti       3.30857000      12.94419000      10.37862000        0      -1.79930700       0.13153800       0.78381800       0.00000000       0.00000000       0.00000000       0.00000000       1.25620000       1.25610000
Ti       3.23770000      12.96280000      13.37493000        0       0.31170400      -0.12019400      -1.36120600      -0.00000000      -0.00000000       0.00000000       0.00000000       1.26330000       1.26310000
Ti       3.08233000      12.84687000      16.22547000        0       2.45906400       1.09507800       0.90901600      -0.00000000      -0.00000000       0.00100000       0.00100000       1.32870000       1.32790000
Ti       3.24452000       3.27256000      17.72241000        0       0.35821000      -0.63463200      -0.80630100       0.00000000       0.00000000       0.00100000       0.00100000       1.25010000       1.24920000
Ti       3.27772000       3.24445000       2.93971000        0      -1.34712700       0.23665900       0.68426100       0.00000000       0.00000000       0.00000000       0.00000000       1.22470000       1.22430000
Ti       3.23620000       3.25472000       5.94741000        0       0.41093600      -0.28867500      -1.44315100       0.00000000       0.00000000       0.00000000       0.00000000       1.27610000       1.27590000
Ti       3.24552000       3.27334000       8.83894000        0       0.24203100      -0.71601000       0.07827400       0.00000000       0.00000000       0.00000000       0.00000000       1.23990000       1.23980000
Ti       3.25499000       3.25119000      11.82708000        0      -0.15695000      -0.03782900      -0.22809100      -0.00000000       0.00000000       0.00000000       0.00000000       1.21080000       1.21070000
Ti       3.25162000       3.19639000      14.77121000        0       1.18138200      -0.74743800       0.69613700      -0.00000000      -0.00000000       0.00100000       0.00100000       1.26680000       1.26630000
Ti       3.19127000       6.45061000       1.49786000        0       1.16430000       0.36339500      -0.41310900      -0.00000000      -0.00000000      -0.00000000      -0.00000000       1.30780000       1.30790000
Ti       3.27795000       6.48866000       4.43355000        0      -0.63304300      -0.24433400      -0.96899200       0.00000000       0.00000000       0.00000000       0.00000000       1.24850000       1.24800000
Ti       3.35317000       6.56376000       7.39581000        0      -1.03943600       0.14038300       0.26443400      -0.00000000      -0.00000000       0.00000000       0.00000000       1.24030000       1.24000000
Ti       3.23834000       6.44851000      10.36411000        0      -0.75370800       0.76609000       0.30167800       0.00000000      -0.00000000       0.00000000       0.00000000       1.22860000       1.22830000
Ti       3.23597000       6.43897000      13.31614000        0       0.40350700      -0.15167900      -0.48224600      -0.00000000      -0.00000000       0.00100000       0.00100000       1.31690000       1.31600000
Ti       3.18149000       6.48185000      16.24113000        0       1.29882500       0.54848000       1.22889700      -0.00000000      -0.00000000       0.00100000       0.00000000       1.24890000       1.24850000
Ti       3.26755000       9.68574000       0.07002000        0      -1.14119900       0.65099600      -1.35626800       0.00000000       0.00000000       0.00100000       0.00100000       1.23100000       1.23020000
Ti       3.24285000       9.74672000       2.90841000        0      -0.00979600       0.48308700       2.21528600       0.00000000       0.00000000       0.00100000       0.00100000       1.32190000       1.32100000
Ti       3.21154000       9.67693000       5.89428000        0      -0.07024200       0.47399700      -1.04345400       0.00000000       0.00000000       0.00000000       0.00000000       1.24390000       1.24370000
Ti       3.22713000       9.72932000       8.94145000        0       0.05015100      -0.18825900      -1.10079600      -0.00000000      -0.00000000       0.00000000       0.00000000       1.25370000       1.25370000
Ti       3.26571000       9.69379000      11.86880000        0      -0.20598300       0.01501900      -1.84678200      -0.00000000       0.00000000       0.00000000       0.00000000       1.35190000       1.35170000
Ti       3.23251000       9.65712000      14.70351000        0      -0.23568000       0.36149800       1.43602700       0.00000000       0.00000000       0.00100000       0.00100000       1.23770000       1.23720000
Ti      12.93921000       0.03363000       0.14974000        0       0.25716100       0.65858400      -2.30091700       0.00100000       0.00200000       0.08100000       0.08400000       1.36250000       1.28130000
Ti      12.95678000      12.85282000       2.92555000        0      -0.17458200      -0.04833800       2.98836200       0.00000000       0.00100000       0.04800000       0.04900000       1.23730000       1.18970000
Ti      12.94939000      12.89275000       5.98532000        0      -0.04613100       1.12629900      -4.07026900      -0.00000000      -0.00000000       0.00200000       0.00100000       1.38380000       1.38230000
Ti      12.93242000      12.84713000       8.86724000        0      -0.12537600       0.19380200       0.72773200       0.00000000       0.00000000       0.00300000       0.00300000       1.15750000       1.15480000
Ti       0.00486000      12.96637000      11.82001000        0      -0.34804500       0.24304500      -1.12487000       0.00000000       0.00000000       0.00300000       0.00400000       1.24510000       1.24170000
Ti      12.95332000       0.04448000      14.67509000        0       0.05384600       2.28169000       1.93753400       0.00000000       0.00000000       0.01400000       0.01400000       1.30050000       1.28680000
Ti       0.00667000       3.16885000       1.44824000        0       0.19620200       0.37373200       1.26700800       0.00100000      -0.00100000       0.02200000       0.02200000       1.42180000       1.40000000
Ti       0.04013000       3.23249000       4.53407000        0      -0.15598600      -0.95327500      -3.76889200      -0.00000000      -0.00000000       0.00200000       0.00200000       1.27710000       1.27470000
Ti       0.01733000       3.16481000       7.39669000        0       0.01602100       0.84483700      -0.06804300      -0.00000000       0.00000000       0.00000000       0.00000000       1.26310000       1.26280000
Ti       0.03245000       3.14697000      10.31676000        0      -0.23278600       1.14950800       0.58958400      -0.00000000       0.00000000       0.00100000       0.00100000       1.32430000       1.32340000
Ti       0.02852000       3.31300000      13.32445000        0      -0.06250300      -1.75515900      -0.60806700       0.00000000       0.00000000       0.00600000       0.00600000       1.32840000       1.32300000
Ti       0.04501000       3.31656000      16.20294000        0      -0.28405600      -1.58142300       2.00757600       0.00200000       0.00100000       0.06700000       0.07000000       1.21790000       1.15130000
Ti       0.02945000       6.39551000       0.02654000        1      -0.14726300       0.86230300       1.70687300       0.00700000       0.01800000       0.63300000       0.65800000       1.68160000       1.04610000
Ti       0.01649000       6.28449000       2.86913000        0       0.02655100      -0.90481200       0.85232600       0.00100000       0.00000000       0.07800000       0.07800000       1.38570000       1.30770000
Ti       0.02332000       6.53303000       5.86345000        0      -0.05821100      -0.83566800       1.65301300       0.00000000       0.00000000       0.00600000       0.00600000       1.20290000       1.19680000
Ti       0.03171000       6.43315000       8.78607000        0      -0.02087000       0.28601000       1.17226300       0.00000000       0.00000000       0.00200000       0.00200000       1.34820000       1.34670000
Ti       0.03114000       6.18026000      11.80944000        0      -0.04919500       2.10238000      -1.96619400       0.00000000      -0.00000000       0.00500000       0.00500000       1.36700000       1.36210000
Ti       0.04352000       6.47941000      14.75196000        0      -0.42211800       2.44566100       1.11645300       0.00100000       0.00000000       0.04200000       0.04300000       1.29780000       1.25590000
Ti      12.95618000       9.56616000       1.36341000        0       0.02657600       0.35609000       1.86716800       0.00200000       0.00100000       0.05100000       0.05400000       1.26480000       1.21340000
Ti      12.94821000       9.56581000       4.31802000        0      -0.26095500       1.33961900       1.35241000       0.00000000      -0.00000000       0.00500000       0.00500000       1.19300000       1.18810000
Ti      12.94200000       9.71513000       7.37685000        0      -0.10761100      -0.83499700      -0.39166300      -0.00000000      -0.00000000       0.00100000       0.00100000       1.26620000       1.26560000
Ti      12.94140000       9.47450000      10.42466000        0      -0.01516700       1.09690200      -2.17602900       0.00000000       0.00000000       0.00100000       0.00100000       1.19570000       1.19500000
Ti      12.95019000       9.62952000      13.30867000        0      -0.09018400      -0.21952400      -0.25277200       0.00000000       0.00000000       0.00300000       0.00300000       1.14300000       1.13980000
Ti      12.93271000       9.58108000      16.19261000        0      -0.01361400      -1.79006300       1.86147400       0.00100000       0.00100000       0.01800000       0.02000000       1.43550000       1.41720000
O       11.65801000       3.21935000       0.03125000        0       1.99730700       0.51807600      -1.35459200       0.00000000      -0.00200000       0.00000000      -0.00100000       0.00000000       0.00000000
O       11.70743000       3.24757000       2.91035000        0      -0.30174100      -0.26227000       1.32058900       0.00000000      -0.00100000       0.00000000      -0.00100000       0.00000000       0.00000000
O       11.70081000       3.33658000       5.90128000        0      -0.14975900       0.01013800       1.15685400       0.00000000      -0.00000000       0.00000000      -0.00000000       0.00000000       0.00000000
O       11.73202000       3.23071000       8.87896000        0      -0.75343700       0.11701300      -0.67529700       0.00000000      -0.00000000       0.00000000      -0.00000000       0.00000000       0.00000000
O       11.80421000       3.34433000      11.81506000        0      -1.76696000      -0.14392900       0.21303600       0.00000000      -0.00000000       0.00000000      -0.00000000       0.00000000       0.00000000
O       11.70566000       3.11721000      14.77975000        0       1.29097600       1.17581300       0.10433600      -0.00000000      -0.00300000       0.00000000      -0.00300000       0.00000000       0.00000000
O       11.70648000       9.79481000      17.69369000        0      -1.42498800      -0.41578900       0.11718200       0.00000000      -0.00200000       0.00000000      -0.00200000       0.00000000       0.00000000
O       11.59929000       9.70477000       2.91447000        0       1.71973600      -0.10273300      -0.15868600       0.00000000      -0.00100000       0.00000000      -0.00100000       0.00000000       0.00000000
O       11.65785000       9.59694000       5.88219000        0       0.33271800       0.23403300      -0.40370500       0.00000000      -0.00000000       0.00000000      -0.00000000       0.00000000       0.00000000
O       11.67754000       9.60440000       8.84152000        0      -0.11573800       0.91109200       1.33370100       0.00000000      -0.00000000       0.00000000      -0.00000000       0.00000000       0.00000000
O       11.59726000       9.75933000      11.86189000        0       1.94628200      -0.40486100       0.47022200       0.00000000      -0.00000000       0.00000000      -0.00000000       0.00000000       0.00000000
O       11.61304000       9.63937000      14.85454000        0       0.45412500       0.27726300      -2.19310800       0.00000000      -0.00000000       0.00000000      -0.00000000       0.00000000       0.00000000
O       11.03069000      12.91196000      17.70086000        0       0.72993900      -0.49804800       0.84810400      -0.00000000      -0.00100000       0.00000000      -0.00100000       0.00000000       0.00000000
O       11.07548000      12.91297000       2.96148000        0      -1.65919600       0.27182700      -0.24998700      -0.00000000      -0.00100000       0.00000000      -0.00100000       0.00000000       0.00000000
O       11.01274000       0.02480000       5.93135000        0      -2.19912800      -0.35404000       0.19562900       0.00000000      -0.00000000       0.00000000      -0.00000000       0.00000000       0.00000000
O       10.86254000      12.88423000       8.88801000        0       1.66905000      -0.10067600      -0.19753500      -0.00000000      -0.00000000       0.00000000      -0.00000000       0.00000000       0.00000000
O       11.02890000      12.93107000      11.89714000        0      -0.91024800       0.13318300      -0.58592200      -0.00000000      -0.00000000       0.00000000      -0.00000000       0.00000000       0.00000000
O       11.00255000      12.96177000      14.77848000        0       1.53013200      -0.51247900      -1.04300000      -0.00000000      -0.00000000       0.00000000      -0.00000000       0.00000000       0.00000000
O       11.06338000       6.50132000       0.05408000        0      -0.61324400      -0.07774000      -0.96317200      -0.00000000      -0.00700000       0.00000000      -0.00700000       0.00000000       0.00000000
O       11.03592000       6.24955000       2.90945000        0      -0.03915400       0.92805000       1.03107100      -0.00000000      -0.00100000       0.00000000      -0.00100000       0.00000000       0.00000000
O       10.95800000       6.55603000       5.97591000        0       0.83664500      -0.24704000      -0.57246500      -0.00000000      -0.00000000       0.00000000      -0.00000000       0.00000000       0.00000000
O       11.05445000       6.49666000       8.81057000        0      -1.42051700      -0.24809500       0.61392200      -0.00000000      -0.00000000       0.00000000      -0.00000000       0.00000000       0.00000000
O       11.11493000       6.14802000      11.84579000        0      -1.74724000       1.00067400      -0.22780200      -0.00000000      -0.00000000       0.00000000      -0.00000000       0.00000000       0.00000000
O       10.99992000       6.72261000      14.76574000        0       1.78809900      -0.72477400       0.11211200      -0.00000000      -0.00100000       0.00000000      -0.00100000       0.00000000       0.00000000
O        9.92497000       1.91875000       1.46202000        0      -0.63658100       1.55531700       0.01980100      -0.00000000      -0.00000000       0.00000000      -0.00000000       0.00000000       0.00000000
O        9.65033000       1.96376000       4.42471000        0       0.23849900       0.98925900       0.11695100      -0.00000000      -0.00000000       0.00000000      -0.00000000       0.00000000       0.00000000
O        9.73468000       1.95870000       7.39045000        0      -0.23826400      -0.17419900       0.22666900       0.00000000      -0.00000000       0.00000000      -0.00000000       0.00000000       0.00000000
O        9.77364000       1.99650000      10.36777000        0      -0.01899400      -0.45432100      -0.17141300       0.00000000      -0.00000000       0.00000000      -0.00000000       0.00000000       0.00000000
O        9.86017000       1.95019000      13.28023000        0      -0.33896000       0.24610800      -0.10480300       0.00000000      -0.00000000       0.00000000      -0.00000000       0.00000000       0.00000000
O        9.98669000       1.94171000      16.26623000        0      -1.26315700       0.19061300      -0.06238200      -0.00000000      -0.00000000       0.00000000      -0.00000000       0.00000000       0.00000000
O        9.76494000       4.53346000       1.47515000        0      -0.27332900      -0.75793500      -0.37972600      -0.00000000      -0.00000000       0.00000000      -0.00000000       0.00000000       0.00000000
O        9.78918000       4.53885000       4.44792000        0      -0.36237900      -0.55898700       0.14349900      -0.00000000      -0.00000000       0.00000000      -0.00000000       0.00000000       0.00000000
O        9.60727000       4.54456000       7.35764000        0       0.38672400       0.20044200       0.58818500      -0.00000000      -0.00000000       0.00000000      -0.00000000       0.00000000       0.00000000
O        9.75798000       4.51464000      10.28329000        0      -0.18448800       0.06596600       0.59475900      -0.00000000      -0.00000000       0.00000000      -0.00000000       0.00000000       0.00000000
O        9.77096000       4.54250000      13.35846000        0       0.04208100      -1.34458700      -0.09409900      -0.00000000      -0.00000000       0.00000000      -0.00000000       0.00000000       0.00000000
O        9.78552000       4.53439000      16.16569000        0       0.08695900       0.38588400       0.77934600      -0.00000000      -0.00000000       0.00000000      -0.00000000       0.00000000       0.00000000
O        9.76885000       8.44469000       1.55283000        0      -0.14621600      -0.24086600      -1.02737000      -0.00000000      -0.00000000       0.00000000      -0.00000000       0.00000000       0.00000000
O        9.65458000       8.47460000       4.39553000        0       0.05929000      -0.38513800      -0.12083000      -0.00000000      -0.00000000       0.00000000      -0.00000000       0.00000000       0.00000000
O        9.79898000       8.56042000       7.41285000        0      -0.86494700      -1.54114500      -0.01331800      -0.00000000      -0.00000000       0.00000000      -0.00000000       0.00000000       0.00000000
O        9.68733000       8.47338000      10.35013000        0       0.29300300      -0.82107400       0.53007500      -0.00000000      -0.00000000       0.00000000      -0.00000000       0.00000000       0.00000000
O        9.68237000       8.34786000      13.14868000        0       0.11911200       1.24646900       1.47555000      -0.00000000      -0.00000000       0.00000000      -0.00000000       0.00000000       0.00000000
O        9.72474000       8.50471000      16.21937000        0       0.02098200      -0.57330500       0.72386300       0.00000000      -0.00000000       0.00000000      -0.00000000       0.00000000       0.00000000